# vtk DataFile Version 2.0
Example Teapot data file
ASCII
DATASET POLYDATA
POINTS 48 FLOAT
29     2     1
2     29    23
1      2     3
25    24    23
24    18    19
21    22    23
23    22     2
23    24    20
25    23    29
2     22     3
3     21     4
21     3    22
4     21    20
26     1     4
19    26     4
21    23    20
26     5     1
20    24    19
26    19    18
19     4    20
26    27    28
4      1     3
24    25    12
5     26    28
12    14    13
14    12    11
16    13    14
24    13    18
11    10     9
8     14     9
8     15    14
10     7     9
9     14    11
16    14    15
6     27     7
26    18    27
5     28     6
27    18     7
28    27     6
15     7    16
7     15     8
17     7    18
7     17    16
9      7     8
17    18    13
16    17    13
7     10     6
13    24    12

POINT_DATA 48
SCALARS Z-dimension float
LOOKUP_TABLE default
1
23
3
23
19
23
2
20
29
3
4
22
20
4
4
20
1
19
18
20
28
3
12
28
13
11
14
18
9
9
14
9
11
15
7
27
6
7
6
16
8
18
16
8
13
13
6
12

SCALARS X-dimension float
LOOKUP_TABLE default
29    
2     
1     
25    
24    
21   
23   
23    
25    
2    
3    
21    
4    
26  
19   
21   
26  
20  
26 
19
26 
4  
24 
5 
12 
14 
16 
24
11 
8   
8  
10  
9   
16  
6   
26 
5   
27  
28   
15  
7   
17  
7  
9   
17  
16  
7    
13  


